<PP_INFO>
Generated using APE Version-2.x
Author: Unknown Generation date: 2017/01/09
Pseudopotential for: O
Exchange-correlation: 
    0        The Pseudo was generated with a Non-Relativistic Calculation
State   n   l    occ     rc         ev
2s      2   0    2.00    1.10     -0.878852
2p      2   1    4.00    1.10     -0.332131
</PP_INFO>
<PP_HEADER>
   0                   Version Number
  O                    Element
   NC                  Norm - Conserving pseudopotential
    F                  Nonlinear Core Correction
 SLA  PW   PBX  PBC    PBE  Exchange-Correlation functional
    6.00000000000      Z valence
    0.00000000000      Total energy
  0.0000000  0.0000000 Suggested cutoff for wfc and rho
    1                  Max angular momentum component
  400                  Number of points in mesh
    2    1             Number of Wavefunctions, Number of Projectors
 Wavefunctions         nl  l   occ
                       2s  0  2.00
                       2p  1  4.00
</PP_HEADER>
<PP_MESH>
  <PP_R>
  2.82842705329E-05  2.93615088166E-05  3.04797749330E-05  3.16406314732E-05
  3.28457005416E-05  3.40966660221E-05  3.53952759311E-05  3.67433448604E-05
  3.81427565124E-05  3.95954663326E-05  4.11035042416E-05  4.26689774720E-05
  4.42940735127E-05  4.59810631656E-05  4.77323037184E-05  4.95502422391E-05
  5.14374189949E-05  5.33964710019E-05  5.54301357099E-05  5.75412548277E-05
  5.97327782936E-05  6.20077683978E-05  6.43694040611E-05  6.68209852772E-05
  6.93659377238E-05  7.20078175492E-05  7.47503163418E-05  7.75972662882E-05
  8.05526455282E-05  8.36205837136E-05  8.68053677784E-05  9.01114479295E-05
  9.35434438649E-05  9.71061512289E-05  1.00804548314E-04  1.04643803015E-04
  1.08629280053E-04  1.12766548471E-04  1.17061389414E-04  1.21519804209E-04
  1.26148022751E-04  1.30952512205E-04  1.35939986050E-04  1.41117413450E-04
  1.46492029001E-04  1.52071342836E-04  1.57863151119E-04  1.63875546940E-04
  1.70116931625E-04  1.76596026471E-04  1.83321884938E-04  1.90303905297E-04
  1.97551843760E-04  2.05075828120E-04  2.12886371893E-04  2.20994389019E-04
  2.29411209104E-04  2.38148593258E-04  2.47218750523E-04  2.56634354937E-04
  2.66408563246E-04  2.76555033281E-04  2.87087943049E-04  2.98022010543E-04
  3.09372514306E-04  3.21155314783E-04  3.33386876480E-04  3.46084290974E-04
  3.59265300793E-04  3.72948324208E-04  3.87152480974E-04  4.01897619041E-04
  4.17204342289E-04  4.33094039324E-04  4.49588913358E-04  4.66712013238E-04
  4.84487265653E-04  5.02939508567E-04  5.22094525924E-04  5.41979083680E-04
  5.62620967203E-04  5.84049020097E-04  6.06293184508E-04  6.29384542962E-04
  6.53355361796E-04  6.78239136251E-04  7.04070637268E-04  7.30885960081E-04
  7.58722574649E-04  7.87619378020E-04  8.17616748678E-04  8.48756602965E-04
  8.81082453658E-04  9.14639470765E-04  9.49474544645E-04  9.85636351528E-04
  1.02317542153E-03  1.06214420928E-03  1.10259716718E-03  1.14459082151E-03
  1.18818385145E-03  1.23343717100E-03  1.28041401418E-03  1.32918002331E-03
  1.37980334079E-03  1.43235470431E-03  1.48690754566E-03  1.54353809339E-03
  1.60232547928E-03  1.66335184895E-03  1.72670247659E-03  1.79246588421E-03
  1.86073396524E-03  1.93160211299E-03  2.00516935392E-03  2.08153848604E-03
  2.16081622253E-03  2.24311334086E-03  2.32854483758E-03  2.41723008903E-03
  2.50929301811E-03  2.60486226749E-03  2.70407137931E-03  2.80705898184E-03
  2.91396898315E-03  3.02495077221E-03  3.14015942765E-03  3.25975593441E-03
  3.38390740878E-03  3.51278733180E-03  3.64657579177E-03  3.78545973586E-03
  3.92963323130E-03  4.07929773661E-03  4.23466238309E-03  4.39594426703E-03
  4.56336875308E-03  4.73716978915E-03  4.91759023334E-03  5.10488219324E-03
  5.29930737828E-03  5.50113746537E-03  5.71065447852E-03  5.92815118298E-03
  6.15393149427E-03  6.38831090288E-03  6.63161691512E-03  6.88418951073E-03
  7.14638161798E-03  7.41855960678E-03  7.70110380069E-03  7.99440900829E-03
  8.29888507490E-03  8.61495745527E-03  8.94306780805E-03  9.28367461298E-03
  9.63725381151E-03  1.00042994719E-02  1.03853244794E-02  1.07808612532E-02
  1.11914624904E-02  1.16177019379E-02  1.20601751945E-02  1.25195005433E-02
  1.29963198150E-02  1.34912992855E-02  1.40051306063E-02  1.45385317715E-02
  1.50922481204E-02  1.56670533799E-02  1.62637507447E-02  1.68831740003E-02
  1.75261886880E-02  1.81936933139E-02  1.88866206049E-02  1.96059388119E-02
  2.03526530625E-02  2.11278067659E-02  2.19324830708E-02  2.27678063785E-02
  2.36349439148E-02  2.45351073604E-02  2.54695545440E-02  2.64395912006E-02
  2.74465727953E-02  2.84919064176E-02  2.95770527477E-02  3.07035280973E-02
  3.18729065287E-02  3.30868220541E-02  3.43469709188E-02  3.56551139716E-02
  3.70130791251E-02  3.84227639103E-02  3.98861381274E-02  4.14052465989E-02
  4.29822120267E-02  4.46192379581E-02  4.63186118648E-02  4.80827083399E-02
  4.99139924150E-02  5.18150230058E-02  5.37884564866E-02  5.58370504031E-02
  5.79636673250E-02  6.01712788464E-02  6.24629697378E-02  6.48419422566E-02
  6.73115206218E-02  6.98751556592E-02  7.25364296229E-02  7.52990612014E-02
  7.81669107135E-02  8.11439855028E-02  8.42344455367E-02  8.74426092201E-02
  9.07729594288E-02  9.42301497744E-02  9.78190111061E-02  1.01544558262E-01
  1.05411997075E-01  1.09426731648E-01  1.13594371908E-01  1.17920741439E-01
  1.22411885623E-01  1.27074080089E-01  1.31913839481E-01  1.36937926556E-01
  1.42153361644E-01  1.47567432448E-01  1.53187704234E-01  1.59022030397E-01
  1.65078563441E-01  1.71365766363E-01  1.77892424486E-01  1.84667657731E-01
  1.91700933362E-01  1.99002079212E-01  2.06581297421E-01  2.14449178688E-01
  2.22616717069E-01  2.31095325345E-01  2.39896850961E-01  2.49033592589E-01
  2.58518317307E-01  2.68364278443E-01  2.78585234092E-01  2.89195466344E-01
  3.00209801235E-01  3.11643629470E-01  3.23512927924E-01  3.35834281972E-01
  3.48624908659E-01  3.61902680762E-01  3.75686151763E-01  3.89994581774E-01
  4.04847964448E-01  4.20267054923E-01  4.36273398816E-01  4.52889362336E-01
  4.70138163530E-01  4.88043904736E-01  5.06631606253E-01  5.25927241307E-01
  5.45957772343E-01  5.66751188703E-01  5.88336545732E-01  6.10744005384E-01
  6.34004878360E-01  6.58151667870E-01  6.83218115041E-01  7.09239246070E-01
  7.36251421167E-01  7.64292385361E-01  7.93401321244E-01  8.23618903717E-01
  8.54987356837E-01  8.87550512805E-01  9.21353873226E-01  9.56444672682E-01
  9.92871944738E-01  1.03068659046E+00  1.06994144953E+00  1.11069137410E+00
  1.15299330542E+00  1.19690635341E+00  1.24249187927E+00  1.28981358120E+00
  1.33893758342E+00  1.38993252856E+00  1.44286967360E+00  1.49782298940E+00
  1.55486926409E+00  1.61408821038E+00  1.67556257689E+00  1.73937826386E+00
  1.80562444311E+00  1.87439368267E+00  1.94578207613E+00  2.01988937692E+00
  2.09681913769E+00  2.17667885499E+00  2.25958011953E+00  2.34563877206E+00
  2.43497506525E+00  2.52771383173E+00  2.62398465853E+00  2.72392206814E+00
  2.82766570650E+00  2.93536053812E+00  3.04715704863E+00  3.16321145510E+00
  3.28368592428E+00  3.40874879924E+00  3.53857483459E+00  3.67334544064E+00
  3.81324893693E+00  3.95848081538E+00  4.10924401341E+00  4.26574919755E+00
  4.42821505781E+00  4.59686861325E+00  4.77194552922E+00  4.95369044661E+00
  5.14235732378E+00  5.33820979135E+00  5.54152152063E+00  5.75257660599E+00
  5.97166996187E+00  6.19910773484E+00  6.43520773143E+00  6.68029986218E+00
  6.93472660263E+00  7.19884347191E+00  7.47301952948E+00  7.75763789085E+00
  8.05309626292E+00  8.35980749969E+00  8.67820017919E+00  9.00871920230E+00
  9.35182641449E+00  9.70800125111E+00  1.00777414073E+01  1.04615635336E+01
  1.08600039577E+01  1.12736194338E+01  1.17029879210E+01  1.21487093903E+01
  1.26114066636E+01  1.30917262834E+01  1.35903394166E+01  1.41079427924E+01
  1.46452596753E+01  1.52030408766E+01  1.57820658029E+01  1.63831435453E+01
  1.70071140102E+01  1.76548490927E+01  1.83272538950E+01  1.90252679911E+01
  1.97498667398E+01  2.05020626475E+01  2.12829067832E+01  2.20934902468E+01
  2.29349456941E+01  2.38084489194E+01  2.47152204984E+01  2.56565274937E+01
  2.66336852255E+01  2.76480591096E+01  2.87010665650E+01  2.97941789948E+01
  3.09289238419E+01  3.21068867240E+01  3.33297136485E+01  3.45991133130E+01
  3.59168594928E+01  3.72847935192E+01  3.87048268529E+01  4.01789437547E+01
  4.17092040582E+01  4.32977460480E+01  4.49467894477E+01  4.66586385217E+01
  4.84356852947E+01  5.02804128946E+01  5.21953990218E+01  5.41833195513E+01
  5.62469522722E+01  5.83891807682E+01  6.06129984481E+01  6.29215127278E+01
  6.53179493726E+01  6.78056570047E+01  7.03881117824E+01  7.30689222576E+01
  7.58518344175E+01  7.87407369198E+01  8.17396665261E+01  8.48528137424E+01
  </PP_R>
  <PP_RAB>
  1.05723079216E-06  1.09749661703E-06  1.13929601117E-06  1.18268738230E-06
  1.22773136263E-06  1.27449089367E-06  1.32303131409E-06  1.37342045106E-06
  1.42572871504E-06  1.48002919813E-06  1.53639777625E-06  1.59491321513E-06
  1.65565728036E-06  1.71871485171E-06  1.78417404164E-06  1.85212631851E-06
  1.92266663434E-06  1.99589355751E-06  2.07190941048E-06  2.15082041279E-06
  2.23273682945E-06  2.31777312505E-06  2.40604812370E-06  2.49768517505E-06
  2.59281232666E-06  2.69156250292E-06  2.79407369081E-06  2.90048913270E-06
  3.01095752648E-06  3.12563323339E-06  3.24467649370E-06  3.36825365059E-06
  3.49653738261E-06  3.62970694498E-06  3.76794842004E-06  3.91145497730E-06
  4.06042714335E-06  4.21507308204E-06  4.37560888540E-06  4.54225887554E-06
  4.71525591817E-06  4.89484174791E-06  5.08126730614E-06  5.27479309162E-06
  5.47568952450E-06  5.68423732418E-06  5.90072790157E-06  6.12546376632E-06
  6.35875894947E-06  6.60093944229E-06  6.85234365182E-06  7.11332287367E-06
  7.38424178299E-06  7.66547894394E-06  7.95742733877E-06  8.26049491686E-06
  8.57510516485E-06  8.90169769829E-06  9.24072887602E-06  9.59267243781E-06
  9.95802016635E-06  1.03372825744E-05  1.07309896182E-05  1.11396914380E-05
  1.15639591267E-05  1.20043855279E-05  1.24615860644E-05  1.29361995980E-05
  1.34288893224E-05  1.39403436895E-05  1.44712773720E-05  1.50224322614E-05
  1.55945785052E-05  1.61885155829E-05  1.68050734227E-05  1.74451135620E-05
  1.81095303504E-05  1.87992522002E-05  1.95152428831E-05  2.02585028772E-05
  2.10300707648E-05  2.18310246841E-05  2.26624838350E-05  2.35256100436E-05
  2.44216093856E-05  2.53517338711E-05  2.63172831948E-05  2.73196065513E-05
  2.83601045213E-05  2.94402310278E-05  3.05614953682E-05  3.17254643232E-05
  3.29337643462E-05  3.41880838358E-05  3.54901754952E-05  3.68418587812E-05
  3.82450224468E-05  3.97016271802E-05  4.12137083446E-05  4.27833788223E-05
  4.44128319672E-05  4.61043446695E-05  4.78602805372E-05  4.96830931991E-05
  5.15753297333E-05  5.35396342260E-05  5.55787514665E-05  5.76955307827E-05
  5.98929300221E-05  6.21740196851E-05  6.45419872159E-05  6.70001414557E-05
  6.95519172670E-05  7.22008803327E-05  7.49507321387E-05  7.78053151464E-05
  8.07686181614E-05  8.38447819076E-05  8.70381048130E-05  9.03530490160E-05
  9.37942466008E-05  9.73665060694E-05  1.01074819061E-04  1.04924367328E-04
  1.08920529974E-04  1.13068890973E-04  1.17375246971E-04  1.21845615384E-04
  1.26486242811E-04  1.31303613758E-04  1.36304459700E-04  1.41495768489E-04
  1.46884794118E-04  1.52479066854E-04  1.58286403765E-04  1.64314919640E-04
  1.70573038329E-04  1.77069504512E-04  1.83813395924E-04  1.90814136032E-04
  1.98081507207E-04  2.05625664395E-04  2.13457149302E-04  2.21586905128E-04
  2.30026291857E-04  2.38787102129E-04  2.47881577723E-04  2.57322426658E-04
  2.67122840952E-04  2.77296515058E-04  2.87857664994E-04  2.98821048215E-04
  3.10201984228E-04  3.22016376000E-04  3.34280732183E-04  3.47012190177E-04
  3.60228540082E-04  3.73948249550E-04  3.88190489598E-04  4.02975161392E-04
  4.18322924054E-04  4.34255223534E-04  4.50794322576E-04  4.67963331823E-04
  4.85786242115E-04  5.04287958009E-04  5.23494332581E-04  5.43432203550E-04
  5.64129430779E-04  5.85614935207E-04  6.07918739258E-04  6.31072008794E-04
  6.55107096664E-04  6.80057587913E-04  7.05958346709E-04  7.32845565061E-04
  7.60756813391E-04  7.89731093034E-04  8.19808890735E-04  8.51032235221E-04
  8.83444755930E-04  9.17091743978E-04  9.52020215444E-04  9.88278977065E-04
  1.02591869444E-03  1.06499196282E-03  1.10555338062E-03  1.14765962567E-03
  1.19136953447E-03  1.23674418435E-03  1.28384697885E-03  1.33274373630E-03
  1.38350278180E-03  1.43619504270E-03  1.49089414766E-03  1.54767652962E-03
  1.60662153251E-03  1.66781152220E-03  1.73133200152E-03  1.79727172981E-03
  1.86572284688E-03  1.93678100180E-03  2.01054548654E-03  2.08711937473E-03
  2.16660966564E-03  2.24912743377E-03  2.33478798399E-03  2.42371101270E-03
  2.51602077506E-03  2.61184625863E-03  2.71132136362E-03  2.81458508997E-03
  2.92178173157E-03  3.03306107795E-03  3.14857862351E-03  3.26849578483E-03
  3.39298012623E-03  3.52220559391E-03  3.65635275901E-03  3.79560906989E-03
  3.94016911414E-03  4.09023489041E-03  4.24601609071E-03  4.40773039338E-03
  4.57560376732E-03  4.74987078769E-03  4.93077496370E-03  5.11856907891E-03
  5.31351554439E-03  5.51588676548E-03  5.72596552233E-03  5.94404536513E-03
  6.17043102424E-03  6.40543883603E-03  6.64939718488E-03  6.90264696208E-03
  7.16554204214E-03  7.43844977726E-03  7.72175151070E-03  8.01584310958E-03
  8.32113551807E-03  8.63805533161E-03  8.96704539302E-03  9.30856541127E-03
  9.66309260388E-03  1.00311223637E-02  1.04131689513E-02  1.08097662132E-02
  1.12214683282E-02  1.16488505818E-02  1.20925101697E-02  1.25530670324E-02
  1.30311647217E-02  1.35274712996E-02  1.40426802723E-02  1.45775115588E-02
  1.51327124968E-02  1.57090588876E-02  1.63073560794E-02  1.69284400934E-02
  1.75731787911E-02  1.82424730880E-02  1.89372582116E-02  1.96585050088E-02
  2.04072213022E-02  2.11844532985E-02  2.19912870503E-02  2.28288499738E-02
  2.36983124242E-02  2.46008893307E-02  2.55378418948E-02  2.65104793520E-02
  2.75201608017E-02  2.85682971061E-02  2.96563528615E-02  3.07858484453E-02
  3.19583621398E-02  3.31755323383E-02  3.44390598341E-02  3.57507101969E-02
  3.71123162403E-02  3.85257805827E-02  3.99930783057E-02  4.15162597143E-02
  4.30974532016E-02  4.47388682228E-02  4.64427983829E-02  4.82116246413E-02
  5.00478186389E-02  5.19539461520E-02  5.39326706772E-02  5.59867571535E-02
  5.81190758256E-02  6.03326062547E-02  6.26304414820E-02  6.50157923507E-02
  6.74919919925E-02  7.00625004852E-02  7.27309096875E-02  7.55009482582E-02
  7.83764868661E-02  8.13615435991E-02  8.44602895780E-02  8.76770547859E-02
  9.10163341180E-02  9.44827936625E-02  9.80812772211E-02  1.01816813077E-01
  1.05694621021E-01  1.09720119646E-01  1.13898933918E-01  1.18236903035E-01
  1.22740088590E-01  1.27414783036E-01  1.32267518482E-01  1.37305075821E-01
  1.42534494202E-01  1.47963080869E-01  1.53598421370E-01  1.59448390158E-01
  1.65521161592E-01  1.71825221364E-01  1.78369378348E-01  1.85162776917E-01
  1.92214909719E-01  1.99535630938E-01  2.07135170065E-01  2.15024146195E-01
  2.23213582861E-01  2.31714923442E-01  2.40540047150E-01  2.49701285628E-01
  2.59211440187E-01  2.69083799688E-01  2.79332159115E-01  2.89970838847E-01
  3.01014704673E-01  3.12479188561E-01  3.24380310224E-01  3.36734699503E-01
  3.49559619605E-01  3.62872991227E-01  3.76693417594E-01  3.91040210458E-01
  4.05933417078E-01  4.21393848238E-01  4.37443107323E-01  4.54103620508E-01
  4.71398668092E-01  4.89352417033E-01  5.07989954713E-01  5.27337323997E-01
  5.47421559620E-01  5.68270725966E-01  5.89913956283E-01  6.12381493391E-01
  6.35704731942E-01  6.59916262289E-01  6.85049916024E-01  7.11140813256E-01
  7.38225411680E-01  7.66341557526E-01  7.95528538436E-01  8.25827138372E-01
  8.57279694593E-01  8.89930156826E-01  9.23824148668E-01  9.59009031345E-01
  9.95533969887E-01  1.03345000183E+00  1.07281010853E+00  1.11366928921E+00
  1.15608463778E+00  1.20011542265E+00  1.24582316952E+00  1.29327174739E+00
  1.34252745776E+00  1.39365912731E+00  1.44673820406E+00  1.50183885719E+00
  1.55903808073E+00  1.61841580109E+00  1.68005498877E+00  1.74404177430E+00
  1.81046556860E+00  1.87941918787E+00  1.95099898335E+00  2.02530497593E+00
  2.10244099588E+00  2.18251482799E+00  2.26563836213E+00  2.35192774964E+00
  2.44150356562E+00  2.53449097739E+00  2.63101991941E+00  2.73122527485E+00
  2.83524706406E+00  2.94323064022E+00  3.05532689243E+00  3.17169245659E+00
  </PP_RAB>
</PP_MESH>
<PP_LOCAL>
 -1.13877759579E+01 -1.13877767103E+01 -1.13877778032E+01 -1.13877789039E+01
 -1.13877801111E+01 -1.13877814063E+01 -1.13877828035E+01 -1.13877843088E+01
 -1.13877859311E+01 -1.13877876792E+01 -1.13877895630E+01 -1.13877915931E+01
 -1.13877937808E+01 -1.13877961382E+01 -1.13877986787E+01 -1.13878014163E+01
 -1.13878043665E+01 -1.13878075456E+01 -1.13878109715E+01 -1.13878146633E+01
 -1.13878186417E+01 -1.13878229289E+01 -1.13878275489E+01 -1.13878325275E+01
 -1.13878378926E+01 -1.13878436740E+01 -1.13878499043E+01 -1.13878566181E+01
 -1.13878638531E+01 -1.13878716496E+01 -1.13878800513E+01 -1.13878891051E+01
 -1.13878988617E+01 -1.13879093756E+01 -1.13879207056E+01 -1.13879329149E+01
 -1.13879460720E+01 -1.13879602503E+01 -1.13879755290E+01 -1.13879919936E+01
 -1.13880097362E+01 -1.13880288559E+01 -1.13880494595E+01 -1.13880716623E+01
 -1.13880955884E+01 -1.13881213714E+01 -1.13881491556E+01 -1.13881790961E+01
 -1.13882113604E+01 -1.13882461287E+01 -1.13882835953E+01 -1.13883239697E+01
 -1.13883674774E+01 -1.13884143616E+01 -1.13884648842E+01 -1.13885193276E+01
 -1.13885779959E+01 -1.13886412168E+01 -1.13887093436E+01 -1.13887827569E+01
 -1.13888618666E+01 -1.13889471146E+01 -1.13890389770E+01 -1.13891379668E+01
 -1.13892446367E+01 -1.13893595823E+01 -1.13894834452E+01 -1.13896169168E+01
 -1.13897607421E+01 -1.13899157235E+01 -1.13900827258E+01 -1.13902626806E+01
 -1.13904565916E+01 -1.13906655401E+01 -1.13908906910E+01 -1.13911332993E+01
 -1.13913947170E+01 -1.13916764005E+01 -1.13919799186E+01 -1.13923069614E+01
 -1.13926593490E+01 -1.13930390424E+01 -1.13934481534E+01 -1.13938889564E+01
 -1.13943639014E+01 -1.13948756263E+01 -1.13954269722E+01 -1.13960209985E+01
 -1.13966609994E+01 -1.13973505217E+01 -1.13980933840E+01 -1.13988936976E+01
 -1.13997558876E+01 -1.14006847177E+01 -1.14016853147E+01 -1.14027631960E+01
 -1.14039242989E+01 -1.14051750113E+01 -1.14065222058E+01 -1.14079732749E+01
 -1.14095361695E+01 -1.14112194398E+01 -1.14130322786E+01 -1.14149845686E+01
 -1.14170869310E+01 -1.14193507797E+01 -1.14217883763E+01 -1.14244128911E+01
 -1.14272384661E+01 -1.14302802824E+01 -1.14335546321E+01 -1.14370789933E+01
 -1.14408721101E+01 -1.14449540765E+01 -1.14493464247E+01 -1.14540722179E+01
 -1.14591561467E+01 -1.14646246304E+01 -1.14705059220E+01 -1.14768302168E+01
 -1.14836297640E+01 -1.14909389822E+01 -1.14987945759E+01 -1.15072356541E+01
 -1.15163038495E+01 -1.15260434363E+01 -1.15365014464E+01 -1.15477277819E+01
 -1.15597753207E+01 -1.15727000150E+01 -1.15865609781E+01 -1.16014205566E+01
 -1.16173443853E+01 -1.16344014193E+01 -1.16526639387E+01 -1.16722075216E+01
 -1.16931109771E+01 -1.17154562337E+01 -1.17393281741E+01 -1.17648144084E+01
 -1.17920049774E+01 -1.18209919753E+01 -1.18518690827E+01 -1.18847309976E+01
 -1.19196727556E+01 -1.19567889256E+01 -1.19961726722E+01 -1.20379146727E+01
 -1.20821018803E+01 -1.21288161246E+01 -1.21781325441E+01 -1.22301178464E+01
 -1.22848283983E+01 -1.23423081479E+01 -1.24025863910E+01 -1.24656753965E+01
 -1.25315679142E+01 -1.26002345972E+01 -1.26716213772E+01 -1.27456468417E+01
 -1.28221996725E+01 -1.29011362107E+01 -1.29822782245E+01 -1.30654109627E+01
 -1.31502815816E+01 -1.32365980356E+01 -1.33240285243E+01 -1.34122015816E+01
 -1.35007068881E+01 -1.35890968748E+01 -1.36768891693E+01 -1.37635699187E+01
 -1.38485979961E+01 -1.39314100746E+01 -1.40114265244E+01 -1.40880580606E+01
 -1.41607130437E+01 -1.42288053113E+01 -1.42917624006E+01 -1.43490340076E+01
 -1.44001005183E+01 -1.44444814482E+01 -1.44817436251E+01 -1.45115089584E+01
 -1.45334616486E+01 -1.45473546969E+01 -1.45530155884E+01 -1.45503510262E+01
 -1.45393506001E+01 -1.45200892731E+01 -1.44927285703E+01 -1.44575163530E+01
 -1.44147850669E+01 -1.43649483605E+01 -1.43084959961E+01 -1.42459870083E+01
 -1.41780411200E+01 -1.41053284923E+01 -1.40285579692E+01 -1.39484640623E+01
 -1.38657930166E+01 -1.37812883729E+01 -1.36956765044E+01 -1.36096526391E+01
 -1.35238678728E+01 -1.34389176435E+01 -1.33553320571E+01 -1.32735683561E+01
 -1.31940056945E+01 -1.31169422533E+01 -1.30425946012E+01 -1.29710990973E+01
 -1.29025150401E+01 -1.28368292175E+01 -1.27739614850E+01 -1.27137710107E+01
 -1.26560628651E+01 -1.26005946932E+01 -1.25470832882E+01 -1.24952109742E+01
 -1.24446317989E+01 -1.23949776315E+01 -1.23458643397E+01 -1.22968982951E+01
 -1.22476835047E+01 -1.21978296911E+01 -1.21469616395E+01 -1.20947300824E+01
 -1.20408243001E+01 -1.19849864774E+01 -1.19270276627E+01 -1.18668449486E+01
 -1.18044392380E+01 -1.17399327193E+01 -1.16735849892E+01 -1.16058066825E+01
 -1.15371695490E+01 -1.14684121975E+01 -1.14004411903E+01 -1.13343277790E+01
 -1.12713012043E+01 -1.12127399676E+01 -1.11601626325E+01 -1.11152193298E+01
 -1.10796840543E+01 -1.10554459474E+01 -1.10444950034E+01 -1.10488941093E+01
 -1.10707254723E+01 -1.11119964847E+01 -1.11744905854E+01 -1.12595572869E+01
 -1.13678581443E+01 -1.14991251383E+01 -1.16520361675E+01 -1.18243387310E+01
 -1.20133089044E+01 -1.22164883112E+01 -1.24324450586E+01 -1.26611947858E+01
 -1.29040223974E+01 -1.31627296047E+01 -1.34385974120E+01 -1.37314156928E+01
 -1.40387977701E+01 -1.43558111562E+01 -1.46748435547E+01 -1.49856128372E+01
 -1.52752795474E+01 -1.55286823109E+01 -1.57287641643E+01 -1.58572842614E+01
 -1.58959147234E+01 -1.58278054670E+01 -1.56396557539E+01 -1.53242515742E+01
 -1.48833019326E+01 -1.43302204477E+01 -1.36922290629E+01 -1.30107614725E+01
 -1.23385203676E+01 -1.17304866173E+01 -1.12244225376E+01 -1.08038729177E+01
 -1.04075687916E+01 -1.00257670250E+01 -9.65796249150E+00 -9.30364098979E+00
 -8.96231276479E+00 -8.63350305035E+00 -8.31675425467E+00 -8.01162489236E+00
 -7.71768934147E+00 -7.43453733507E+00 -7.16177349668E+00 -6.89901684994E+00
 -6.64590033100E+00 -6.40207030377E+00 -6.16718608381E+00 -5.94091947317E+00
 -5.72295430827E+00 -5.51298602169E+00 -5.31072121861E+00 -5.11587726776E+00
 -4.92818190701E+00 -4.74737286311E+00 -4.57319748528E+00 -4.40541239223E+00
 -4.24378313201E+00 -4.08808385448E+00 -3.93809699568E+00 -3.79361297379E+00
 -3.65442989634E+00 -3.52035327803E+00 -3.39119576901E+00 -3.26677689307E+00
 -3.14692279547E+00 -3.03146599998E+00 -2.92024517488E+00 -2.81310490753E+00
 -2.70989548718E+00 -2.61047269579E+00 -2.51469760652E+00 -2.42243638957E+00
 -2.33356012522E+00 -2.24794462363E+00 -2.16547025136E+00 -2.08602176417E+00
 -2.00948814598E+00 -1.93576245378E+00 -1.86474166816E+00 -1.79632654935E+00
 -1.73042149859E+00 -1.66693442451E+00 -1.60577661448E+00 -1.54686261061E+00
 -1.49011009036E+00 -1.43543975151E+00 -1.38277520134E+00 -1.33204284988E+00
 -1.28317180710E+00 -1.23609378384E+00 -1.19074299637E+00 -1.14705607450E+00
 -1.10497197301E+00 -1.06443188636E+00 -1.02537916650E+00 -9.87759243755E-01
 -9.51519550521E-01 -9.16609447846E-01 -8.82980154660E-01 -8.50584679610E-01
 -8.19377755399E-01 -7.89315775533E-01 -7.60356733387E-01 -7.32460163508E-01
 -7.05587085074E-01 -6.79699947419E-01 -6.54762577568E-01 -6.30740129687E-01
 -6.07599036394E-01 -5.85306961855E-01 -5.63832756598E-01 -5.43146413986E-01
 -5.23219028291E-01 -5.04022754301E-01 -4.85530768410E-01 -4.67717231140E-01
 -4.50557251029E-01 -4.34026849856E-01 -4.18102929130E-01 -4.02763237816E-01
 -3.87986341242E-01 -3.73751591151E-01 -3.60039096841E-01 -3.46829697381E-01
 -3.34104934826E-01 -3.21847028436E-01 -3.10038849821E-01 -2.98663899013E-01
 -2.87706281406E-01 -2.77150685551E-01 -2.66982361754E-01 -2.57187101472E-01
 -2.47751217454E-01 -2.38661524621E-01 -2.29905321636E-01 -2.21470373158E-01
 -2.13344892750E-01 -2.05517526400E-01 -1.97977336664E-01 -1.90713787380E-01
 -1.83716728943E-01 -1.76976384126E-01 -1.70483334417E-01 -1.64228506857E-01
 -1.58203161363E-01 -1.52398878515E-01 -1.46807547792E-01 -1.41421356237E-01
</PP_LOCAL>
<PP_NONLOCAL>
  <PP_BETA>
    1    1             Beta    L
   400
 -3.68819828879E-08 -3.97448658263E-08 -4.28299737660E-08 -4.61545564349E-08
 -4.97372025327E-08 -5.35979436662E-08 -5.77583663519E-08 -6.22417327119E-08
 -6.70731105396E-08 -7.22795134606E-08 -7.78900519740E-08 -8.39360962172E-08
 -9.04514513657E-08 -9.74725466474E-08 -1.05038639029E-07 -1.13192032713E-07
 -1.21978315671E-07 -1.31446614544E-07 -1.41649869318E-07 -1.52645129328E-07
 -1.64493872241E-07 -1.77262347790E-07 -1.91021948199E-07 -2.05849607357E-07
 -2.21828230974E-07 -2.39047160135E-07 -2.57602670830E-07 -2.77598512261E-07
 -2.99146486930E-07 -3.22367075765E-07 -3.47390111759E-07 -3.74355505905E-07
 -4.03414029476E-07 -4.34728157034E-07 -4.68472974870E-07 -5.04837159960E-07
 -5.44024034913E-07 -5.86252704806E-07 -6.31759282261E-07 -6.80798207621E-07
 -7.33643671595E-07 -7.90591148337E-07 -8.51959047526E-07 -9.18090494684E-07
 -9.89355249687E-07 -1.06615177420E-06 -1.14890945958E-06 -1.23809102774E-06
 -1.33419511834E-06 -1.43775907681E-06 -1.54936195885E-06 -1.66962776803E-06
 -1.79922894479E-06 -1.93889012626E-06 -2.08939219789E-06 -2.25157665957E-06
 -2.42635033074E-06 -2.61469042060E-06 -2.81764999202E-06 -3.03636384943E-06
 -3.27205488389E-06 -3.52604091051E-06 -3.79974203678E-06 -4.09468860275E-06
 -4.41252973751E-06 -4.75504257995E-06 -5.12414221520E-06 -5.52189238232E-06
 -5.95051701321E-06 -6.41241266717E-06 -6.91016193062E-06 -7.44654785702E-06
 -8.02456952752E-06 -8.64745881958E-06 -9.31869847713E-06 -1.00420415833E-05
 -1.08215325450E-05 -1.16615297056E-05 -1.25667297138E-05 -1.35421937834E-05
 -1.45933759915E-05 -1.57261537731E-05 -1.69468607835E-05 -1.82623223103E-05
 -1.96798934348E-05 -2.12075001557E-05 -2.28536837043E-05 -2.46276482998E-05
 -2.65393126110E-05 -2.85993652130E-05 -3.08193243478E-05 -3.32116023239E-05
 -3.57895749142E-05 -3.85676561407E-05 -4.15613788637E-05 -4.47874816263E-05
 -4.82640022392E-05 -5.20103786296E-05 -5.60475575174E-05 -6.03981115269E-05
 -6.50863653869E-05 -7.01385319277E-05 -7.55828586315E-05 -8.14497855584E-05
 -8.77721155286E-05 -9.45851975136E-05 -1.01927124260E-04 -1.09838945251E-04
 -1.18364896195E-04 -1.27552646327E-04 -1.37453564898E-04 -1.48123008352E-04
 -1.59620629779E-04 -1.72010712395E-04 -1.85362528891E-04 -1.99750728668E-04
 -2.15255755132E-04 -2.31964295352E-04 -2.49969764620E-04 -2.69372828612E-04
 -2.90281966049E-04 -3.12814075030E-04 -3.37095126392E-04 -3.63260867770E-04
 -3.91457582270E-04 -4.21842905994E-04 -4.54586708990E-04 -4.89872044523E-04
 -5.27896171979E-04 -5.68871659106E-04 -6.13027569729E-04 -6.60610743575E-04
 -7.11887175332E-04 -7.67143500636E-04 -8.26688597263E-04 -8.90855310442E-04
 -9.60002311908E-04 -1.03451610303E-03 -1.11481317318E-03 -1.20134232534E-03
 -1.29458718186E-03 -1.39506888436E-03 -1.50334900271E-03 -1.62003266927E-03
 -1.74577195578E-03 -1.88126951168E-03 -2.02728248396E-03 -2.18462674029E-03
 -2.35418141883E-03 -2.53689382987E-03 -2.73378473640E-03 -2.94595404279E-03
 -3.17458692287E-03 -3.42096042142E-03 -3.68645056509E-03 -3.97254002213E-03
 -4.28082635287E-03 -4.61303089612E-03 -4.97100834036E-03 -5.35675703178E-03
 -5.77243007558E-03 -6.22034729097E-03 -6.70300808470E-03 -7.22310531305E-03
 -7.78354020723E-03 -8.38743844252E-03 -9.03816743786E-03 -9.73935497826E-03
 -1.04949092598E-02 -1.13090404638E-02 -1.21862839744E-02 -1.31315253622E-02
 -1.41500272652E-02 -1.52474583071E-02 -1.64299242038E-02 -1.77040012179E-02
 -1.90767721334E-02 -2.05558649332E-02 -2.21494943745E-02 -2.38665066705E-02
 -2.57164274995E-02 -2.77095135762E-02 -2.98568080354E-02 -3.21701998917E-02
 -3.46624878573E-02 -3.73474488099E-02 -4.02399112260E-02 -4.33558339038E-02
 -4.67123903204E-02 -5.03280589816E-02 -5.42227201363E-02 -5.84177592428E-02
 -6.29361775848E-02 -6.78027104447E-02 -7.30439532498E-02 -7.86884961073E-02
 -8.47670671457E-02 -9.13126850679E-02 -9.83608213110E-02 -1.05949572176E-01
 -1.14119841261E-01 -1.22915532475E-01 -1.32383753836E-01 -1.42575032194E-01
 -1.53543538847E-01 -1.65347325946E-01 -1.78048573328E-01 -1.91713845229E-01
 -2.06414356044E-01 -2.22226243903E-01 -2.39230850475E-01 -2.57515004820E-01
 -2.77171308520E-01 -2.98298418527E-01 -3.21001323257E-01 -3.45391606333E-01
 -3.71587691057E-01 -3.99715057100E-01 -4.29906419000E-01 -4.62301853806E-01
 -4.97048862547E-01 -5.34302347052E-01 -5.74224479956E-01 -6.16984441391E-01
 -6.62757990822E-01 -7.11726836634E-01 -7.64077759317E-01 -8.20001436418E-01
 -8.79690908633E-01 -9.43339616607E-01 -1.01113892710E+00 -1.08327505525E+00
 -1.15992527700E+00 -1.24125331239E+00 -1.32740374713E+00 -1.41849534743E+00
 -1.51461311212E+00 -1.61579889860E+00 -1.72204045721E+00 -1.83325871453E+00
 -1.94929316344E+00 -2.06988525206E+00 -2.19465971824E+00 -2.32310390025E+00
 -2.45454517336E+00 -2.58812682555E+00 -2.72278290247E+00 -2.85721283014E+00
 -2.98985697047E+00 -3.11887468337E+00 -3.24212695612E+00 -3.35716620375E+00
 -3.46123641732E+00 -3.55128739563E+00 -3.62400727135E+00 -3.67587784225E+00
 -3.70325721718E+00 -3.70249383740E+00 -3.67007487226E+00 -3.60281015112E+00
 -3.49805005233E+00 -3.35393206744E+00 -3.16964616167E+00 -2.94570379986E+00
 -2.68419005040E+00 -2.38897318645E+00 -2.06584250914E+00 -1.72254360368E+00
 -1.36868163698E+00 -1.01546793653E+00 -6.75292627997E-01 -3.61115463770E-01
 -8.56764867196E-02  1.39463678841E-01  3.05037259064E-01  4.05310241350E-01
  4.39400972143E-01  4.12567164009E-01  3.37221500370E-01  2.33188227514E-01
  1.26301343910E-01  4.38418143635E-02  4.52178452606E-03  0.00000000000E+00
  0.00000000000E+00  0.00000000000E+00  0.00000000000E+00  0.00000000000E+00
  0.00000000000E+00  0.00000000000E+00  0.00000000000E+00  0.00000000000E+00
  0.00000000000E+00  0.00000000000E+00  0.00000000000E+00  0.00000000000E+00