<PP_INFO>
Generated using APE Version-2.x
Author: Unknown Generation date: 2017/02/03
Pseudopotential for: Ti
Exchange-correlation: 
    1        The Pseudo was generated with a Scalar-Relativistic Calculation
State   n   l    occ     rc         ev
4s      4   0    2.00    2.54     -0.164159
4p      4   1    0.00    2.96     -0.053883
3d      3   2    2.00    2.25     -0.156511
</PP_INFO>
<PP_HEADER>
   0                   Version Number
  Ti                   Element
   NC                  Norm - Conserving pseudopotential
    T                  Nonlinear Core Correction
 SLA  PW   PBX  PBC    PBE  Exchange-Correlation functional
    4.00000000000      Z valence
    0.00000000000      Total energy
  0.0000000  0.0000000 Suggested cutoff for wfc and rho
    2                  Max angular momentum component
  800                  Number of points in mesh
    3    2             Number of Wavefunctions, Number of Projectors
 Wavefunctions         nl  l   occ
                       4s  0  2.00
                       4p  1  0.00
                       3d  2  2.00
</PP_HEADER>
<PP_MESH>
  <PP_R>
  4.69041564133E-05  4.77878909732E-05  4.86882762274E-05  4.96056258964E-05
  5.05402596116E-05  5.14925030266E-05  5.24626879308E-05  5.34511523649E-05
  5.44582407387E-05  5.54843039512E-05  5.65296995127E-05  5.75947916695E-05
  5.86799515307E-05  5.97855571977E-05  6.09119938957E-05  6.20596541082E-05
  6.32289377133E-05  6.44202521236E-05  6.56340124278E-05  6.68706415353E-05
  6.81305703237E-05  6.94142377890E-05  7.07220911984E-05  7.20545862461E-05
  7.34121872121E-05  7.47953671244E-05  7.62046079230E-05  7.76404006286E-05
  7.91032455132E-05  8.05936522746E-05  8.21121402139E-05  8.36592384166E-05
  8.52354859369E-05  8.68414319854E-05  8.84776361203E-05  9.01446684431E-05
  9.18431097962E-05  9.35735519663E-05  9.53365978898E-05  9.71328618633E-05
  9.89629697575E-05  1.00827559235E-04  1.02727279974E-04  1.04662793892E-04
  1.06634775379E-04  1.08643911530E-04  1.10690902387E-04  1.12776461181E-04
  1.14901314582E-04  1.17066202951E-04  1.19271880598E-04  1.21519116045E-04
  1.23808692294E-04  1.26141407102E-04  1.28518073252E-04  1.30939518847E-04
  1.33406587586E-04  1.35920139070E-04  1.38481049093E-04  1.41090209951E-04
  1.43748530750E-04  1.46456937729E-04  1.49216374574E-04  1.52027802754E-04
  1.54892201853E-04  1.57810569910E-04  1.60783923770E-04  1.63813299437E-04
  1.66899752432E-04  1.70044358167E-04  1.73248212314E-04  1.76512431188E-04
  1.79838152140E-04  1.83226533946E-04  1.86678757218E-04  1.90196024811E-04
  1.93779562244E-04  1.97430618126E-04  2.01150464590E-04  2.04940397741E-04
  2.08801738100E-04  2.12735831072E-04  2.16744047410E-04  2.20827783692E-04
  2.24988462812E-04  2.29227534471E-04  2.33546475686E-04  2.37946791301E-04
  2.42430014515E-04  2.46997707414E-04  2.51651461514E-04  2.56392898320E-04
  2.61223669887E-04  2.66145459395E-04  2.71159981740E-04  2.76268984128E-04
  2.81474246683E-04  2.86777583072E-04  2.92180841131E-04  2.97685903513E-04
  3.03294688342E-04  3.09009149882E-04  3.14831279219E-04  3.20763104951E-04
  3.26806693900E-04  3.32964151829E-04  3.39237624174E-04  3.45629296798E-04
  3.52141396744E-04  3.58776193019E-04  3.65535997379E-04  3.72423165137E-04
  3.79440095982E-04  3.86589234819E-04  3.93873072614E-04  4.01294147271E-04
  4.08855044508E-04  4.16558398761E-04  4.24406894104E-04  4.32403265181E-04
  4.40550298161E-04  4.48850831709E-04  4.57307757971E-04  4.65924023588E-04
  4.74702630718E-04  4.83646638083E-04  4.92759162036E-04  5.02043377647E-04
  5.11502519806E-04  5.21139884354E-04  5.30958829231E-04  5.40962775642E-04
  5.51155209255E-04  5.61539681411E-04  5.72119810362E-04  5.82899282533E-04
  5.93881853807E-04  6.05071350833E-04  6.16471672356E-04  6.28086790582E-04
  6.39920752556E-04  6.51977681575E-04  6.64261778625E-04  6.76777323844E-04
  6.89528678013E-04  7.02520284074E-04  7.15756668682E-04  7.29242443780E-04
  7.42982308205E-04  7.56981049325E-04  7.71243544711E-04  7.85774763832E-04
  8.00579769787E-04  8.15663721073E-04  8.31031873379E-04  8.46689581415E-04
  8.62642300785E-04  8.78895589881E-04  8.95455111822E-04  9.12326636429E-04
  9.29516042233E-04  9.47029318523E-04  9.64872567437E-04  9.83052006081E-04
  1.00157396870E-03  1.02044490889E-03  1.03967140184E-03  1.05926014661E-03
  1.07921796850E-03  1.09955182138E-03  1.12026879018E-03  1.14137609328E-03
  1.16288108509E-03  1.18479125857E-03  1.20711424786E-03  1.22985783095E-03
  1.25302993236E-03  1.27663862592E-03  1.30069213760E-03  1.32519884834E-03
  1.35016729699E-03  1.37560618329E-03  1.40152437089E-03  1.42793089043E-03
  1.45483494272E-03  1.48224590192E-03  1.51017331881E-03  1.53862692410E-03
  1.56761663187E-03  1.59715254297E-03  1.62724494858E-03  1.65790433377E-03
  1.68914138115E-03  1.72096697464E-03  1.75339220320E-03  1.78642836471E-03
  1.82008696994E-03  1.85437974654E-03  1.88931864310E-03  1.92491583335E-03
  1.96118372039E-03  1.99813494102E-03  2.03578237011E-03  2.07413912512E-03
  2.11321857068E-03  2.15303432319E-03  2.19360025562E-03  2.23493050233E-03
  2.27703946398E-03  2.31994181257E-03  2.36365249651E-03  2.40818674589E-03
  2.45356007773E-03  2.49978830144E-03  2.54688752426E-03  2.59487415694E-03
  2.64376491943E-03  2.69357684669E-03  2.74432729465E-03  2.79603394623E-03
  2.84871481756E-03  2.90238826418E-03  2.95707298748E-03  3.01278804122E-03
  3.06955283813E-03  3.12738715675E-03  3.18631114822E-03  3.24634534338E-03
  3.30751065990E-03  3.36982840956E-03  3.43332030567E-03  3.49800847066E-03
  3.56391544379E-03  3.63106418895E-03  3.69947810273E-03  3.76918102253E-03
  3.84019723487E-03  3.91255148389E-03  3.98626897990E-03  4.06137540824E-03
  4.13789693817E-03  4.21586023202E-03  4.29529245448E-03  4.37622128205E-03
  4.45867491269E-03  4.54268207565E-03  4.62827204148E-03  4.71547463221E-03
  4.80432023177E-03  4.89483979656E-03  4.98706486623E-03  5.08102757468E-03
  5.17676066127E-03  5.27429748219E-03  5.37367202211E-03  5.47491890601E-03
  5.57807341128E-03  5.68317147993E-03  5.79024973120E-03  5.89934547428E-03
  6.01049672131E-03  6.12374220061E-03  6.23912137022E-03  6.35667443160E-03
  6.47644234367E-03  6.59846683705E-03  6.72279042864E-03  6.84945643640E-03
  6.97850899446E-03  7.10999306850E-03  7.24395447140E-03  7.38043987921E-03
  7.51949684744E-03  7.66117382758E-03  7.80552018402E-03  7.95258621124E-03
  8.10242315134E-03  8.25508321188E-03  8.41061958405E-03  8.56908646129E-03
  8.73053905805E-03  8.89503362914E-03  9.06262748926E-03  9.23337903300E-03
  9.40734775516E-03  9.58459427153E-03  9.76518033996E-03  9.94916888190E-03
  1.01366240043E-02  1.03276110221E-02  1.05221964805E-02  1.07204481790E-02
  1.09224351942E-02  1.11282279042E-02  1.13378980132E-02  1.15515185764E-02
  1.17691640255E-02  1.19909101944E-02  1.22168343459E-02  1.24470151987E-02
  1.26815329545E-02  1.29204693260E-02  1.31639075657E-02  1.34119324946E-02
  1.36646305318E-02  1.39220897245E-02  1.41843997793E-02  1.44516520924E-02
  1.47239397823E-02  1.50013577222E-02  1.52840025724E-02  1.55719728147E-02
  1.58653687862E-02  1.61642927148E-02  1.64688487542E-02  1.67791430205E-02
  1.70952836295E-02  1.74173807337E-02  1.77455465610E-02  1.80798954541E-02
  1.84205439099E-02  1.87676106202E-02  1.91212165131E-02  1.94814847953E-02
  1.98485409947E-02  2.02225130044E-02  2.06035311273E-02  2.09917281210E-02
  2.13872392447E-02  2.17902023061E-02  2.22007577092E-02  2.26190485035E-02
  2.30452204337E-02  2.34794219905E-02  2.39218044624E-02  2.43725219884E-02
  2.48317316116E-02  2.52995933340E-02  2.57762701722E-02  2.62619282144E-02
  2.67567366780E-02  2.72608679686E-02  2.77744977404E-02  2.82978049569E-02
  2.88309719537E-02  2.93741845015E-02  2.99276318715E-02  3.04915069010E-02
  3.10660060603E-02  3.16513295218E-02  3.22476812293E-02  3.28552689690E-02
  3.34743044422E-02  3.41050033389E-02  3.47475854130E-02  3.54022745589E-02
  3.60692988893E-02  3.67488908149E-02  3.74412871255E-02  3.81467290719E-02
  3.88654624509E-02  3.95977376899E-02  4.03438099352E-02  4.11039391400E-02
  4.18783901554E-02  4.26674328229E-02  4.34713420678E-02  4.42903979955E-02
  4.51248859892E-02  4.59750968085E-02  4.68413266920E-02  4.77238774591E-02
  4.86230566165E-02  4.95391774642E-02  5.04725592056E-02  5.14235270580E-02
  5.23924123664E-02  5.33795527186E-02  5.43852920631E-02  5.54099808288E-02
  5.64539760472E-02  5.75176414766E-02  5.86013477291E-02  5.97054723995E-02
  6.08304001971E-02  6.19765230794E-02  6.31442403892E-02  6.43339589931E-02
  6.55460934238E-02  6.67810660243E-02  6.80393070951E-02  6.93212550439E-02
  7.06273565389E-02  7.19580666639E-02  7.33138490771E-02  7.46951761725E-02
  7.61025292449E-02  7.75363986571E-02  7.89972840109E-02  8.04856943215E-02
  8.20021481943E-02  8.35471740061E-02  8.51213100889E-02  8.67251049177E-02
  8.83591173013E-02  9.00239165772E-02  9.17200828101E-02  9.34482069937E-02
  9.52088912569E-02  9.70027490734E-02  9.88304054755E-02  1.00692497272E-01
  1.02589673270E-01  1.04522594501E-01  1.06491934451E-01  1.08498379295E-01
  1.10542628138E-01  1.12625393255E-01  1.14747400343E-01  1.16909388769E-01
  1.19112111835E-01  1.21356337034E-01  1.23642846317E-01  1.25972436373E-01
  1.28345918899E-01  1.30764120884E-01  1.33227884901E-01  1.35738069396E-01
  1.38295548993E-01  1.40901214790E-01  1.43555974678E-01  1.46260753653E-01
  1.49016494138E-01  1.51824156314E-01  1.54684718452E-01  1.57599177255E-01
  1.60568548206E-01  1.63593865921E-01  1.66676184507E-01  1.69816577935E-01
  1.73016140410E-01  1.76275986751E-01  1.79597252785E-01  1.82981095738E-01
  1.86428694639E-01  1.89941250732E-01  1.93519987894E-01  1.97166153062E-01
  2.00881016665E-01  2.04665873070E-01  2.08522041032E-01  2.12450864152E-01
  2.16453711347E-01  2.20531977325E-01  2.24687083072E-01  2.28920476350E-01
  2.33233632196E-01  2.37628053438E-01  2.42105271221E-01  2.46666845539E-01
  2.51314365777E-01  2.56049451266E-01  2.60873751849E-01  2.65788948451E-01
  2.70796753672E-01  2.75898912376E-01  2.81097202305E-01  2.86393434693E-01
  2.91789454904E-01  2.97287143066E-01  3.02888414736E-01  3.08595221560E-01
  3.14409551955E-01  3.20333431804E-01  3.26368925159E-01  3.32518134962E-01
  3.38783203777E-01  3.45166314536E-01  3.51669691302E-01  3.58295600041E-01
  3.65046349411E-01  3.71924291572E-01  3.78931822999E-01  3.86071385319E-01
  3.93345466165E-01  4.00756600039E-01  4.08307369195E-01  4.16000404542E-01
  4.23838386557E-01  4.31824046221E-01  4.39960165973E-01  4.48249580672E-01
  4.56695178592E-01  4.65299902427E-01  4.74066750312E-01  4.82998776873E-01
  4.92099094289E-01  5.01370873375E-01  5.10817344690E-01  5.20441799659E-01
  5.30247591723E-01  5.40238137506E-01  5.50416918006E-01  5.60787479806E-01
  5.71353436312E-01  5.82118469012E-01  5.93086328757E-01  6.04260837068E-01
  6.15645887471E-01  6.27245446849E-01  6.39063556826E-01  6.51104335177E-01
  6.63371977259E-01  6.75870757477E-01  6.88605030770E-01  7.01579234131E-01
  7.14797888150E-01  7.28265598591E-01  7.41987057997E-01  7.55967047325E-01
  7.70210437611E-01  7.84722191666E-01  7.99507365810E-01  8.14571111628E-01
  8.29918677768E-01  8.45555411769E-01  8.61486761926E-01  8.77718279185E-01
  8.94255619081E-01  9.11104543703E-01  9.28270923710E-01  9.45760740368E-01
  9.63580087639E-01  9.81735174304E-01  1.00023232612E+00  1.01907798804E+00
  1.03827872645E+00  1.05784123142E+00  1.07777231912E+00  1.09807893412E+00
  1.11876815183E+00  1.13984718098E+00  1.16132336611E+00  1.18320419017E+00
  1.20549727705E+00  1.22821039433E+00  1.25135145592E+00  1.27492852483E+00
  1.29894981601E+00  1.32342369917E+00  1.34835870173E+00  1.37376351177E+00
  1.39964698107E+00  1.42601812818E+00  1.45288614157E+00  1.48026038285E+00
  1.50815039001E+00  1.53656588072E+00  1.56551675578E+00  1.59501310252E+00
  1.62506519833E+00  1.65568351422E+00  1.68687871852E+00  1.71866168053E+00
  1.75104347438E+00  1.78403538283E+00  1.81764890121E+00  1.85189574146E+00
  1.88678783617E+00  1.92233734277E+00  1.95855664774E+00  1.99545837094E+00
  2.03305537001E+00  2.07136074484E+00  2.11038784214E+00  2.15015026009E+00
  2.19066185307E+00  2.23193673650E+00  2.27398929176E+00  2.31683417118E+00
  2.36048630316E+00  2.40496089739E+00  2.45027345011E+00  2.49643974953E+00
  2.54347588133E+00  2.59139823428E+00  2.64022350592E+00  2.68996870840E+00
  2.74065117439E+00  2.79228856315E+00  2.84489886665E+00  2.89850041585E+00
  2.95311188710E+00  3.00875230861E+00  3.06544106715E+00  3.12319791471E+00
  3.18204297548E+00  3.24199675279E+00  3.30308013627E+00  3.36531440917E+00
  3.42872125572E+00  3.49332276870E+00  3.55914145718E+00  3.62620025430E+00
  3.69452252531E+00  3.76413207566E+00  3.83505315937E+00  3.90731048739E+00
  3.98092923630E+00  4.05593505701E+00  4.13235408373E+00  4.21021294308E+00
  4.28953876336E+00  4.37035918400E+00  4.45270236518E+00  4.53659699767E+00
  4.62207231282E+00  4.70915809270E+00  4.79788468054E+00  4.88828299127E+00
  4.98038452231E+00  5.07422136451E+00  5.16982621335E+00  5.26723238036E+00
  5.36647380468E+00  5.46758506493E+00  5.57060139120E+00  5.67555867740E+00
  5.78249349369E+00  5.89144309930E+00  6.00244545543E+00  6.11553923854E+00
  6.23076385380E+00  6.34815944884E+00  6.46776692769E+00  6.58962796509E+00
  6.71378502098E+00  6.84028135529E+00  6.96916104304E+00  7.10046898966E+00
  7.23425094668E+00  7.37055352762E+00  7.50942422428E+00  7.65091142326E+00
  7.79506442283E+00  7.94193345008E+00  8.09156967848E+00  8.24402524564E+00
  8.39935327152E+00  8.55760787696E+00  8.71884420245E+00  8.88311842743E+00
  9.05048778985E+00  9.22101060605E+00  9.39474629116E+00  9.57175537977E+00
  9.75209954698E+00  9.93584162998E+00  1.01230456499E+01  1.03137768339E+01
  1.05081016386E+01  1.07060877721E+01  1.09078042188E+01  1.11133212624E+01
  1.13227105111E+01  1.15360449223E+01  1.17533988278E+01  1.19748479601E+01
  1.22004694786E+01  1.24303419963E+01  1.26645456075E+01  1.29031619156E+01
  1.31462740614E+01  1.33939667524E+01  1.36463262919E+01  1.39034406093E+01
  1.41653992907E+01  1.44322936102E+01  1.47042165615E+01  1.49812628906E+01
  1.52635291283E+01  1.55511136246E+01  1.58441165822E+01  1.61426400920E+01
  1.64467881681E+01  1.67566667847E+01  1.70723839125E+01  1.73940495566E+01
  1.77217757946E+01  1.80556768159E+01  1.83958689614E+01  1.87424707640E+01
  1.90956029897E+01  1.94553886802E+01  1.98219531953E+01  2.01954242568E+01
  2.05759319928E+01  2.09636089833E+01  2.13585903064E+01  2.17610135850E+01
  2.21710190351E+01  2.25887495146E+01  2.30143505729E+01  2.34479705019E+01
  2.38897603874E+01  2.43398741618E+01  2.47984686580E+01  2.52657036636E+01
  2.57417419769E+01  2.62267494635E+01  2.67208951143E+01  2.72243511038E+01
  2.77372928510E+01  2.82598990796E+01  2.87923518809E+01  2.93348367769E+01
  2.98875427853E+01  3.04506624848E+01  3.10243920829E+01  3.16089314836E+01
  3.22044843576E+01  3.28112582127E+01  3.34294644667E+01  3.40593185207E+01
  3.47010398342E+01  3.53548520016E+01  3.60209828301E+01  3.66996644191E+01
  3.73911332411E+01  3.80956302239E+01  3.88134008349E+01  3.95446951663E+01
  4.02897680223E+01  4.10488790080E+01  4.18222926198E+01  4.26102783376E+01
  4.34131107186E+01  4.42310694929E+01  4.50644396614E+01  4.59135115943E+01
  4.67785811331E+01  4.76599496934E+01  4.85579243695E+01  4.94728180421E+01
  5.04049494867E+01  5.13546434851E+01  5.23222309385E+01  5.33080489824E+01
  5.43124411047E+01  5.53357572648E+01  5.63783540158E+01  5.74405946290E+01
  5.85228492200E+01  5.96254948776E+01  6.07489157959E+01  6.18935034075E+01
  6.30596565200E+01  6.42477814551E+01  6.54582921904E+01  6.66916105028E+01
  6.79481661166E+01  6.92283968524E+01  7.05327487798E+01  7.18616763730E+01
  7.32156426693E+01  7.45951194299E+01  7.60005873047E+01  7.74325359998E+01
  7.88914644477E+01  8.03778809818E+01  8.18923035128E+01  8.34352597097E+01
  8.50072871834E+01  8.66089336742E+01  8.82407572423E+01  8.99033264627E+01
  9.15972206229E+01  9.33230299251E+01  9.50813556915E+01  9.68728105741E+01
  9.86980187679E+01  1.00557616229E+02  1.02452250895E+02  1.04382582912E+02
  1.06349284863E+02  1.08353042006E+02  1.10394552508E+02  1.12474527690E+02
  1.14593692276E+02  1.16752784645E+02  1.18952557089E+02  1.21193776070E+02
  1.23477222497E+02  1.25803691987E+02  1.28173995152E+02  1.30588957872E+02
  1.33049421593E+02  1.35556243611E+02  1.38110297376E+02  1.40712472795E+02
  </PP_R>
  <PP_RAB>
  8.75512330352E-07  8.92008107337E-07  9.08814685952E-07  9.25937922097E-07
  9.43383782008E-07  9.61158344330E-07  9.79267802240E-07  9.97718465600E-07
  1.01651676316E-06  1.03566924479E-06  1.05518258378E-06  1.07506357915E-06
  1.09531915800E-06  1.11595637799E-06  1.13698242970E-06  1.15840463924E-06
  1.18023047073E-06  1.20246752892E-06  1.22512356186E-06  1.24820646355E-06
  1.27172427677E-06  1.29568519580E-06  1.32009756932E-06  1.34496990333E-06
  1.37031086405E-06  1.39612928103E-06  1.42243415015E-06  1.44923463679E-06
  1.47654007904E-06  1.50435999089E-06  1.53270406561E-06  1.56158217912E-06
  1.59100439338E-06  1.62098095995E-06  1.65152232355E-06  1.68263912566E-06
  1.71434220831E-06  1.74664261775E-06  1.77955160841E-06  1.81308064672E-06
  1.84724141518E-06  1.88204581641E-06  1.91750597726E-06  1.95363425310E-06
  1.99044323206E-06  2.02794573947E-06  2.06615484230E-06  2.10508385371E-06
  2.14474633770E-06  2.18515611384E-06  2.22632726207E-06  2.26827412763E-06
  2.31101132601E-06  2.35455374812E-06  2.39891656539E-06  2.44411523512E-06
  2.49016550586E-06  2.53708342285E-06  2.58488533367E-06  2.63358789390E-06
  2.68320807292E-06  2.73376315986E-06  2.78527076958E-06  2.83774884884E-06
  2.89121568252E-06  2.94568990002E-06  3.00119048177E-06  3.05773676577E-06
  3.11534845440E-06  3.17404562125E-06  3.23384871813E-06  3.29477858218E-06
  3.35685644313E-06  3.42010393074E-06  3.48454308225E-06  3.55019635016E-06
  3.61708660997E-06  3.68523716821E-06  3.75467177051E-06  3.82541460991E-06
  3.89749033528E-06  3.97092405991E-06  4.04574137024E-06  4.12196833481E-06
  4.19963151331E-06  4.27875796586E-06  4.35937526242E-06  4.44151149241E-06
  4.52519527449E-06  4.61045576652E-06  4.69732267574E-06  4.78582626913E-06
  4.87599738390E-06  4.96786743831E-06  5.06146844257E-06  5.15683300998E-06
  5.25399436835E-06  5.35298637152E-06  5.45384351119E-06  5.55660092894E-06
  5.66129442845E-06  5.76796048797E-06  5.87663627307E-06  5.98735964958E-06
  6.10016919673E-06  6.21510422066E-06  6.33220476809E-06  6.45151164026E-06
  6.57306640717E-06  6.69691142203E-06  6.82308983606E-06  6.95164561350E-06
  7.08262354693E-06  7.21606927288E-06  7.35202928774E-06  7.49055096392E-06
  7.63168256643E-06  7.77547326963E-06  7.92197317439E-06  8.07123332555E-06
  8.22330572970E-06  8.37824337329E-06  8.53610024112E-06  8.69693133513E-06
  8.86079269354E-06  9.02774141045E-06  9.19783565565E-06  9.37113469492E-06
  9.54769891072E-06  9.72758982316E-06  9.91087011147E-06  1.00976036359E-05
  1.02878554597E-05  1.04816918723E-05  1.06791804120E-05  1.08803898894E-05
  1.10853904119E-05  1.12942534075E-05  1.15070516503E-05  1.17238592853E-05
  1.19447518547E-05  1.21698063238E-05  1.23991011083E-05  1.26327161010E-05
  1.28707327003E-05  1.31132338381E-05  1.33603040089E-05  1.36120292990E-05
  1.38684974170E-05  1.41297977238E-05  1.43960212640E-05  1.46672607978E-05
  1.49436108327E-05  1.52251676574E-05  1.55120293743E-05  1.58042959344E-05
  1.61020691720E-05  1.64054528399E-05  1.67145526458E-05  1.70294762891E-05
  1.73503334984E-05  1.76772360698E-05  1.80102979055E-05  1.83496350540E-05
  1.86953657503E-05  1.90476104571E-05  1.94064919067E-05  1.97721351437E-05
  2.01446675691E-05  2.05242189839E-05  2.09109216349E-05  2.13049102607E-05
  2.17063221382E-05  2.21152971312E-05  2.25319777385E-05  2.29565091436E-05
  2.33890392657E-05  2.38297188110E-05  2.42787013251E-05  2.47361432464E-05
  2.52022039612E-05  2.56770458585E-05  2.61608343872E-05  2.66537381132E-05
  2.71559287786E-05  2.76675813613E-05  2.81888741358E-05  2.87199887359E-05
  2.92611102174E-05  2.98124271226E-05  3.03741315466E-05  3.09464192035E-05
  3.15294894950E-05  3.21235455799E-05  3.27287944444E-05  3.33454469751E-05
  3.39737180316E-05  3.46138265220E-05  3.52659954785E-05  3.59304521359E-05
  3.66074280104E-05  3.72971589799E-05  3.79998853670E-05  3.87158520219E-05
  3.94453084083E-05  4.01885086901E-05  4.09457118199E-05  4.17171816294E-05
  4.25031869211E-05  4.33040015623E-05  4.41199045799E-05  4.49511802586E-05
  4.57981182389E-05  4.66610136187E-05  4.75401670559E-05  4.84358848733E-05
  4.93484791649E-05  5.02782679054E-05  5.12255750601E-05  5.21907306985E-05
  5.31740711090E-05  5.41759389161E-05  5.51966831996E-05  5.62366596166E-05
  5.72962305253E-05  5.83757651110E-05  5.94756395152E-05  6.05962369659E-05
  6.17379479122E-05  6.29011701593E-05  6.40863090079E-05  6.52937773948E-05
  6.65239960372E-05  6.77773935791E-05  6.90544067409E-05  7.03554804711E-05
  7.16810681017E-05  7.30316315061E-05  7.44076412600E-05  7.58095768053E-05
  7.72379266171E-05  7.86931883743E-05  8.01758691324E-05  8.16864855007E-05
  8.32255638218E-05  8.47936403557E-05  8.63912614657E-05  8.80189838098E-05
  8.96773745339E-05  9.13670114695E-05  9.30884833355E-05  9.48423899428E-05
  9.66293424037E-05  9.84499633445E-05  1.00304887123E-04  1.02194760047E-04
  1.04120240606E-04  1.06081999692E-04  1.08080720839E-04  1.10117100460E-04
  1.12191848089E-04  1.14305686628E-04  1.16459352601E-04  1.18653596407E-04
  1.20889182586E-04  1.23166890080E-04  1.25487512509E-04  1.27851858446E-04
  1.30260751697E-04  1.32715031592E-04  1.35215553273E-04  1.37763187994E-04
  1.40358823426E-04  1.43003363964E-04  1.45697731043E-04  1.48442863459E-04
  1.51239717696E-04  1.54089268260E-04  1.56992508017E-04  1.59950448540E-04
  1.62964120463E-04  1.66034573836E-04  1.69162878494E-04  1.72350124432E-04
  1.75597422177E-04  1.78905903183E-04  1.82276720221E-04  1.85711047782E-04
  1.89210082486E-04  1.92775043499E-04  1.96407172958E-04  2.00107736400E-04
  2.03878023212E-04  2.07719347071E-04  2.11633046406E-04  2.15620484863E-04
  2.19683051784E-04  2.23822162684E-04  2.28039259751E-04  2.32335812343E-04
  2.36713317506E-04  2.41173300489E-04  2.45717315281E-04  2.50346945149E-04
  2.55063803191E-04  2.59869532898E-04  2.64765808726E-04  2.69754336680E-04
  2.74836854909E-04  2.80015134310E-04  2.85290979148E-04  2.90666227679E-04
  2.96142752798E-04  3.01722462685E-04  3.07407301475E-04  3.13199249929E-04
  3.19100326133E-04  3.25112586193E-04  3.31238124956E-04  3.37479076738E-04
  3.43837616069E-04  3.50315958449E-04  3.56916361122E-04  3.63641123859E-04
  3.70492589766E-04  3.77473146091E-04  3.84585225065E-04  3.91831304743E-04
  3.99213909870E-04  4.06735612761E-04  4.14399034198E-04  4.22206844338E-04
  4.30161763652E-04  4.38266563864E-04  4.46524068924E-04  4.54937155987E-04
  4.63508756417E-04  4.72241856810E-04  4.81139500034E-04  4.90204786286E-04
  4.99440874175E-04  5.08850981826E-04  5.18438387993E-04  5.28206433208E-04
  5.38158520942E-04  5.48298118794E-04  5.58628759695E-04  5.69154043142E-04
  5.79877636449E-04  5.90803276029E-04  6.01934768695E-04  6.13275992981E-04
  6.24830900503E-04  6.36603517325E-04  6.48597945371E-04  6.60818363850E-04
  6.73269030711E-04  6.85954284130E-04  6.98878544019E-04  7.12046313566E-04
  7.25462180807E-04  7.39130820221E-04  7.53056994361E-04  7.67245555510E-04
  7.81701447378E-04  7.96429706819E-04  8.11435465588E-04  8.26723952129E-04
  8.42300493395E-04  8.58170516708E-04  8.74339551648E-04  8.90813231976E-04
  9.07597297603E-04  9.24697596588E-04  9.42120087173E-04  9.59870839861E-04
  9.77956039533E-04  9.96381987599E-04  1.01515510420E-03  1.03428193043E-03
  1.05376913063E-03  1.07362349472E-03  1.09385194054E-03  1.11446151626E-03
  1.13545940286E-03  1.15685291662E-03  1.17864951166E-03  1.20085678255E-03
  1.22348246695E-03  1.24653444831E-03  1.27002075862E-03  1.29394958118E-03
  1.31832925349E-03  1.34316827015E-03  1.36847528579E-03  1.39425911812E-03
  1.42052875096E-03  1.44729333744E-03  1.47456220311E-03  1.50234484924E-03
  1.53065095611E-03  1.55949038639E-03  1.58887318859E-03  1.61880960053E-03
  1.64931005292E-03  1.68038517302E-03  1.71204578830E-03  1.74430293024E-03
  1.77716783818E-03  1.81065196319E-03  1.84476697214E-03  1.87952475168E-03
  1.91493741244E-03  1.95101729321E-03  1.98777696529E-03  2.02522923681E-03
  2.06338715724E-03  2.10226402191E-03  2.14187337664E-03  2.18222902251E-03
  2.22334502058E-03  2.26523569687E-03  2.30791564732E-03  2.35139974286E-03
  2.39570313462E-03  2.44084125919E-03  2.48682984402E-03  2.53368491285E-03
  2.58142279138E-03  2.63006011286E-03  2.67961382396E-03  2.73010119063E-03
  2.78153980415E-03  2.83394758722E-03  2.88734280024E-03  2.94174404768E-03
  2.99717028450E-03  3.05364082282E-03  3.11117533862E-03  3.16979387861E-03
  3.22951686719E-03  3.29036511361E-03  3.35235981914E-03  3.41552258457E-03
  3.47987541764E-03  3.54544074075E-03  3.61224139877E-03  3.68030066701E-03
  3.74964225928E-03  3.82029033623E-03  3.89226951370E-03  3.96560487135E-03
  4.04032196133E-03  4.11644681727E-03  4.19400596329E-03  4.27302642325E-03
  4.35353573019E-03  4.43556193589E-03  4.51913362068E-03  4.60427990337E-03
  4.69103045140E-03  4.77941549119E-03  4.86946581867E-03  4.96121281001E-03
  5.05468843251E-03  5.14992525583E-03  5.24695646323E-03  5.34581586323E-03
  5.44653790132E-03  5.54915767200E-03  5.65371093097E-03  5.76023410766E-03
  5.86876431784E-03  5.97933937659E-03  6.09199781150E-03  6.20677887604E-03
  6.32372256328E-03  6.44286961981E-03  6.56426155995E-03  6.68794068018E-03
  6.81395007391E-03  6.94233364650E-03  7.07313613051E-03  7.20640310134E-03
  7.34218099311E-03  7.48051711477E-03  7.62145966667E-03  7.76505775731E-03
  7.91136142044E-03  8.06042163252E-03  8.21229033048E-03  8.36702042980E-03
  8.52466584296E-03  8.68528149822E-03  8.84892335874E-03  9.01564844213E-03
  9.18551484027E-03  9.35858173956E-03  9.53490944155E-03  9.71455938396E-03
  9.89759416206E-03  1.00840775505E-02  1.02740745255E-02  1.04676512877E-02
  1.06648752847E-02  1.08658152351E-02  1.10705411523E-02  1.12791243688E-02
  1.14916375611E-02  1.17081547749E-02  1.19287514511E-02  1.21535044521E-02
  1.23824920884E-02  1.26157941458E-02  1.28534919138E-02  1.30956682130E-02
  1.33424074248E-02  1.35937955203E-02  1.38499200905E-02  1.41108703766E-02
  1.43767373013E-02  1.46476135004E-02  1.49235933550E-02  1.52047730247E-02
  1.54912504805E-02  1.57831255396E-02  1.60804998997E-02  1.63834771748E-02
  1.66921629310E-02  1.70066647233E-02  1.73270921334E-02  1.76535568076E-02
  1.79861724956E-02  1.83250550904E-02  1.86703226686E-02  1.90220955316E-02
  1.93804962472E-02  1.97456496926E-02  2.01176830980E-02  2.04967260908E-02
  2.08829107404E-02  2.12763716049E-02  2.16772457775E-02  2.20856729345E-02
  2.25017953838E-02  2.29257581146E-02  2.33577088479E-02  2.37977980878E-02
  2.42461791744E-02  2.47030083367E-02  2.51684447472E-02  2.56426505776E-02
  2.61257910550E-02  2.66180345196E-02  2.71195524834E-02  2.76305196899E-02
  2.81511141750E-02  2.86815173290E-02  2.92219139597E-02  2.97724923571E-02
  3.03334443588E-02  3.09049654168E-02  3.14872546657E-02  3.20805149921E-02
  3.26849531051E-02  3.33007796087E-02  3.39282090746E-02  3.45674601177E-02
  3.52187554716E-02  3.58823220667E-02  3.65583911088E-02  3.72471981601E-02
  3.79489832212E-02  3.86639908143E-02  3.93924700689E-02  4.01346748085E-02
  4.08908636388E-02  4.16613000381E-02  4.24462524489E-02  4.32459943714E-02
  4.40608044591E-02  4.48909666155E-02  4.57367700934E-02  4.65985095954E-02
  4.74764853765E-02  4.83710033493E-02  4.92823751897E-02  5.02109184463E-02
  5.11569566507E-02  5.21208194301E-02  5.31028426225E-02  5.41033683934E-02
  5.51227453550E-02  5.61613286881E-02  5.72194802653E-02  5.82975687776E-02
  5.93959698623E-02  6.05150662345E-02  6.16552478199E-02  6.28169118910E-02
  6.40004632056E-02  6.52063141472E-02  6.64348848697E-02  6.76866034428E-02
  6.89619060018E-02  7.02612368992E-02  7.15850488598E-02  7.29338031384E-02
  7.43079696802E-02  7.57080272849E-02  7.71344637733E-02  7.85877761576E-02
  8.00684708142E-02  8.15770636601E-02  8.31140803332E-02  8.46800563749E-02
  8.62755374169E-02  8.79010793713E-02  8.95572486242E-02  9.12446222334E-02
  9.29637881289E-02  9.47153453184E-02  9.64999040954E-02  9.83180862522E-02
  1.00170525296E-01  1.02057866672E-01  1.03980767983E-01  1.05939899226E-01
  1.07935943017E-01  1.09969594838E-01  1.12041563272E-01  1.14152570252E-01
  1.16303351316E-01  1.18494655858E-01  1.20727247392E-01  1.23001903819E-01
  1.25319417695E-01  1.27680596510E-01  1.30086262966E-01  1.32537255269E-01
  1.35034427415E-01  1.37578649493E-01  1.40170807983E-01  1.42811806068E-01
  1.45502563950E-01  1.48244019168E-01  1.51037126923E-01  1.53882860416E-01
  1.56782211184E-01  1.59736189445E-01  1.62745824451E-01  1.65812164846E-01
  1.68936279034E-01  1.72119255547E-01  1.75362203425E-01  1.78666252608E-01
  1.82032554321E-01  1.85462281483E-01  1.88956629111E-01  1.92516814737E-01
  1.96144078833E-01  1.99839685245E-01  2.03604921629E-01  2.07441099903E-01
  2.11349556703E-01  2.15331653851E-01  2.19388778824E-01  2.23522345244E-01
  2.27733793365E-01  2.32024590578E-01  2.36396231923E-01  2.40850240607E-01
  2.45388168535E-01  2.50011596856E-01  2.54722136505E-01  2.59521428773E-01
  2.64411145871E-01  2.69392991522E-01  2.74468701544E-01  2.79640044463E-01
  2.84908822126E-01  2.90276870328E-01  2.95746059454E-01  3.01318295129E-01
  3.06995518883E-01  3.12779708824E-01  3.18672880335E-01  3.24677086767E-01
  3.30794420161E-01  3.37027011975E-01  3.43377033825E-01  3.49846698244E-01
  3.56438259451E-01  3.63154014140E-01  3.69996302273E-01  3.76967507904E-01